TITLE = "Taylor_Green_flow" 
VARIABLES =  "x", "y", "z", "u1", "u2", "u3", "w1", "w2", "w3", "v", "w", "phi" 
zone I=21,J=21,K=21,t="Taylor_Green_flow" 
DATAPACKING=point 
0  0  0  0  0  0  0  0  0  0  0  1 
0     0.31416           0           0    -0.30902           0   -0.048142           0    0.048142     0.30902    0.068084     0.95106 
0     0.62832           0           0    -0.58779           0   -0.091572           0    0.091572     0.58779      0.1295     0.80902 
0     0.94248           0           0    -0.80902           0    -0.12604           0     0.12604     0.80902     0.17825     0.58779 
0      1.2566           0           0    -0.95106           0    -0.14817           0     0.14817     0.95106     0.20954     0.30902 
0      1.5708           0           0          -1           0    -0.15579           0     0.15579           1     0.22032  6.1232e-17 
0       1.885           0           0    -0.95106           0    -0.14817           0     0.14817     0.95106     0.20954    -0.30902 
0      2.1991           0           0    -0.80902           0    -0.12604           0     0.12604     0.80902     0.17825    -0.58779 
0      2.5133           0           0    -0.58779           0   -0.091572           0    0.091572     0.58779      0.1295    -0.80902 
0      2.8274           0           0    -0.30902           0   -0.048142           0    0.048142     0.30902    0.068084    -0.95106 
0      3.1416           0           0 -1.2246e-16           0 -1.9079e-17           0  1.9079e-17  1.2246e-16  2.6982e-17          -1 
0      3.4558           0           0     0.30902           0    0.048142           0   -0.048142     0.30902    0.068084    -0.95106 
0      3.7699           0           0     0.58779           0    0.091572           0   -0.091572     0.58779      0.1295    -0.80902 
0      4.0841           0           0     0.80902           0     0.12604           0    -0.12604     0.80902     0.17825    -0.58779 
0      4.3982           0           0     0.95106           0     0.14817           0    -0.14817     0.95106     0.20954    -0.30902 
0      4.7124           0           0           1           0     0.15579           0    -0.15579           1     0.22032  -1.837e-16 
0      5.0265           0           0     0.95106           0     0.14817           0    -0.14817     0.95106     0.20954     0.30902 
0      5.3407           0           0     0.80902           0     0.12604           0    -0.12604     0.80902     0.17825     0.58779 
0      5.6549           0           0     0.58779           0    0.091572           0   -0.091572     0.58779      0.1295     0.80902 
0       5.969           0           0     0.30902           0    0.048142           0   -0.048142     0.30902    0.068084     0.95106 
0      6.2832           0           0  2.4493e-16           0  3.8158e-17           0 -3.8158e-17  2.4493e-16  5.3964e-17           1 
0.31416           0           0     0.30902           0           0           0   -0.048142    0.048142     0.30902    0.068084     0.95106 
0.31416     0.31416           0     0.29389    -0.29389           0   -0.045786   -0.045786     0.18786     0.41563      0.1987     0.90451 
0.31416     0.62832           0        0.25    -0.55902           0    -0.08709   -0.038948     0.35733     0.61237     0.36984     0.76942 
0.31416     0.94248           0     0.18164    -0.76942           0    -0.11987   -0.028297     0.49182     0.79057       0.507     0.55902 
0.31416      1.2566           0    0.095492    -0.90451           0    -0.14092   -0.014877     0.57816     0.90954     0.59527     0.29389 
0.31416      1.5708           0  1.8922e-17    -0.95106           0    -0.14817 -2.9479e-18     0.60792     0.95106     0.62571  5.8235e-17 
0.31416       1.885           0   -0.095492    -0.90451           0    -0.14092    0.014877     0.57816     0.90954     0.59527    -0.29389 
0.31416      2.1991           0    -0.18164    -0.76942           0    -0.11987    0.028297     0.49182     0.79057       0.507    -0.55902 
0.31416      2.5133           0       -0.25    -0.55902           0    -0.08709    0.038948     0.35733     0.61237     0.36984    -0.76942 
0.31416      2.8274           0    -0.29389    -0.29389           0   -0.045786    0.045786     0.18786     0.41563      0.1987    -0.90451 
0.31416      3.1416           0    -0.30902 -1.1647e-16           0 -1.8145e-17    0.048142  1.2557e-16     0.30902    0.048142    -0.95106 
0.31416      3.4558           0    -0.29389     0.29389           0    0.045786    0.045786    -0.18786     0.41563      0.1987    -0.90451 
0.31416      3.7699           0       -0.25     0.55902           0     0.08709    0.038948    -0.35733     0.61237     0.36984    -0.76942 
0.31416      4.0841           0    -0.18164     0.76942           0     0.11987    0.028297    -0.49182     0.79057       0.507    -0.55902 
0.31416      4.3982           0   -0.095492     0.90451           0     0.14092    0.014877    -0.57816     0.90954     0.59527    -0.29389 
0.31416      4.7124           0 -5.6766e-17     0.95106           0     0.14817  8.8436e-18    -0.60792     0.95106     0.62571 -1.7471e-16 
0.31416      5.0265           0    0.095492     0.90451           0     0.14092   -0.014877    -0.57816     0.90954     0.59527     0.29389 
0.31416      5.3407           0     0.18164     0.76942           0     0.11987   -0.028297    -0.49182     0.79057       0.507     0.55902 
0.31416      5.6549           0        0.25     0.55902           0     0.08709   -0.038948    -0.35733     0.61237     0.36984     0.76942 
0.31416       5.969           0     0.29389     0.29389           0    0.045786   -0.045786    -0.18786     0.41563      0.1987     0.90451 
0.31416      6.2832           0     0.30902  2.3294e-16           0   3.629e-17   -0.048142   -0.048142     0.30902    0.068084     0.95106 
0.62832           0           0     0.58779           0           0           0   -0.091572    0.091572     0.58779      0.1295     0.80902 
0.62832     0.31416           0     0.55902       -0.25           0   -0.038948    -0.08709     0.35733     0.61237     0.36984     0.76942 
0.62832     0.62832           0     0.47553    -0.47553           0   -0.074083   -0.074083     0.67967      0.6725      0.6877     0.65451 
0.62832     0.94248           0     0.34549    -0.65451           0    -0.10197   -0.053825     0.93549      0.7401     0.94257     0.47553 
0.62832      1.2566           0     0.18164    -0.76942           0    -0.11987   -0.028297      1.0997     0.79057      1.1066        0.25 
0.62832      1.5708           0  3.5991e-17    -0.80902           0    -0.12604 -5.6072e-18      1.1563     0.80902      1.1632  4.9538e-17 
0.62832       1.885           0    -0.18164    -0.76942           0    -0.11987    0.028297      1.0997     0.79057      1.1066       -0.25 
0.62832      2.1991           0    -0.34549    -0.65451           0    -0.10197    0.053825     0.93549      0.7401     0.94257    -0.47553 
0.62832      2.5133           0    -0.47553    -0.47553           0   -0.074083    0.074083     0.67967      0.6725      0.6877    -0.65451 
0.62832      2.8274           0    -0.55902       -0.25           0   -0.038948     0.08709     0.35733     0.61237     0.36984    -0.76942 
0.62832      3.1416           0    -0.58779 -9.9076e-17           0 -1.5435e-17    0.091572   2.475e-16     0.58779    0.091572    -0.80902 
0.62832      3.4558           0    -0.55902        0.25           0    0.038948     0.08709    -0.35733     0.61237     0.36984    -0.76942 
0.62832      3.7699           0    -0.47553     0.47553           0    0.074083    0.074083    -0.67967      0.6725      0.6877    -0.65451 
0.62832      4.0841           0    -0.34549     0.65451           0     0.10197    0.053825    -0.93549      0.7401     0.94257    -0.47553 
0.62832      4.3982           0    -0.18164     0.76942           0     0.11987    0.028297     -1.0997     0.79057      1.1066       -0.25 
0.62832      4.7124           0 -1.0797e-16     0.80902           0     0.12604  1.6822e-17     -1.1563     0.80902      1.1632 -1.4861e-16 
0.62832      5.0265           0     0.18164     0.76942           0     0.11987   -0.028297     -1.0997     0.79057      1.1066        0.25 
0.62832      5.3407           0     0.34549     0.65451           0     0.10197   -0.053825    -0.93549      0.7401     0.94257     0.47553 
0.62832      5.6549           0     0.47553     0.47553           0    0.074083   -0.074083    -0.67967      0.6725      0.6877     0.65451 
0.62832       5.969           0     0.55902        0.25           0    0.038948    -0.08709    -0.35733     0.61237     0.36984     0.76942 
0.62832      6.2832           0     0.58779  1.9815e-16           0   3.087e-17   -0.091572   -0.091572     0.58779      0.1295     0.80902 
0.94248           0           0     0.80902           0           0           0    -0.12604     0.12604     0.80902     0.17825     0.58779 
0.94248     0.31416           0     0.76942    -0.18164           0   -0.028297    -0.11987     0.49182     0.79057       0.507     0.55902 
0.94248     0.62832           0     0.65451    -0.34549           0   -0.053825    -0.10197     0.93549      0.7401     0.94257     0.47553 
0.94248     0.94248           0     0.47553    -0.47553           0   -0.074083   -0.074083      1.2876      0.6725      1.2918     0.34549 
0.94248      1.2566           0        0.25    -0.55902           0    -0.08709   -0.038948      1.5137     0.61237      1.5167     0.18164 
0.94248      1.5708           0  4.9538e-17    -0.58779           0   -0.091572 -7.7176e-18      1.5915     0.58779      1.5942  3.5991e-17 
0.94248       1.885           0       -0.25    -0.55902           0    -0.08709    0.038948      1.5137     0.61237      1.5167    -0.18164 
0.94248      2.1991           0    -0.47553    -0.47553           0   -0.074083    0.074083      1.2876      0.6725      1.2918    -0.34549 
0.94248      2.5133           0    -0.65451    -0.34549           0   -0.053825     0.10197     0.93549      0.7401     0.94257    -0.47553 
0.94248      2.8274           0    -0.76942    -0.18164           0   -0.028297     0.11987     0.49182     0.79057       0.507    -0.55902 
0.94248      3.1416           0    -0.80902 -7.1983e-17           0 -1.1214e-17     0.12604  2.7415e-16     0.80902     0.12604    -0.58779 
0.94248      3.4558           0    -0.76942     0.18164           0    0.028297     0.11987    -0.49182     0.79057       0.507    -0.55902 
0.94248      3.7699           0    -0.65451     0.34549           0    0.053825     0.10197    -0.93549      0.7401     0.94257    -0.47553 
0.94248      4.0841           0    -0.47553     0.47553           0    0.074083    0.074083     -1.2876      0.6725      1.2918    -0.34549 
0.94248      4.3982           0       -0.25     0.55902           0     0.08709    0.038948     -1.5137     0.61237      1.5167    -0.18164 
0.94248      4.7124           0 -1.4861e-16     0.58779           0    0.091572  2.3153e-17     -1.5915     0.58779      1.5942 -1.0797e-16 
0.94248      5.0265           0        0.25     0.55902           0     0.08709   -0.038948     -1.5137     0.61237      1.5167     0.18164 
0.94248      5.3407           0     0.47553     0.47553           0    0.074083   -0.074083     -1.2876      0.6725      1.2918     0.34549 
0.94248      5.6549           0     0.65451     0.34549           0    0.053825    -0.10197    -0.93549      0.7401     0.94257     0.47553 
0.94248       5.969           0     0.76942     0.18164           0    0.028297    -0.11987    -0.49182     0.79057       0.507     0.55902 
0.94248      6.2832           0     0.80902  1.4397e-16           0  2.2429e-17    -0.12604    -0.12604     0.80902     0.17825     0.58779 
1.2566           0           0     0.95106           0           0           0    -0.14817     0.14817     0.95106     0.20954     0.30902 
1.2566     0.31416           0     0.90451   -0.095492           0   -0.014877    -0.14092     0.57816     0.90954     0.59527     0.29389 
1.2566     0.62832           0     0.76942    -0.18164           0   -0.028297    -0.11987      1.0997     0.79057      1.1066        0.25 
1.2566     0.94248           0     0.55902       -0.25           0   -0.038948    -0.08709      1.5137     0.61237      1.5167     0.18164 
1.2566      1.2566           0     0.29389    -0.29389           0   -0.045786   -0.045786      1.7794     0.41563      1.7806    0.095492 
1.2566      1.5708           0  5.8235e-17    -0.30902           0   -0.048142 -9.0726e-18       1.871     0.30902      1.8716  1.8922e-17 
1.2566       1.885           0    -0.29389    -0.29389           0   -0.045786    0.045786      1.7794     0.41563      1.7806   -0.095492 
1.2566      2.1991           0    -0.55902       -0.25           0   -0.038948     0.08709      1.5137     0.61237      1.5167    -0.18164 
1.2566      2.5133           0    -0.76942    -0.18164           0   -0.028297     0.11987      1.0997     0.79057      1.1066       -0.25 
1.2566      2.8274           0    -0.90451   -0.095492           0   -0.014877     0.14092     0.57816     0.90954     0.59527    -0.29389 
1.2566      3.1416           0    -0.95106 -3.7844e-17           0 -5.8957e-18     0.14817  4.6796e-16     0.95106     0.14817    -0.30902 
1.2566      3.4558           0    -0.90451    0.095492           0    0.014877     0.14092    -0.57816     0.90954     0.59527    -0.29389 
1.2566      3.7699           0    -0.76942     0.18164           0    0.028297     0.11987     -1.0997     0.79057      1.1066       -0.25 
1.2566      4.0841           0    -0.55902        0.25           0    0.038948     0.08709     -1.5137     0.61237      1.5167    -0.18164 
1.2566      4.3982           0    -0.29389     0.29389           0    0.045786    0.045786     -1.7794     0.41563      1.7806   -0.095492 
1.2566      4.7124           0 -1.7471e-16     0.30902           0    0.048142  2.7218e-17      -1.871     0.30902      1.8716 -5.6766e-17 
1.2566      5.0265           0     0.29389     0.29389           0    0.045786   -0.045786     -1.7794     0.41563      1.7806    0.095492 
1.2566      5.3407           0     0.55902        0.25           0    0.038948    -0.08709     -1.5137     0.61237      1.5167     0.18164 
1.2566      5.6549           0     0.76942     0.18164           0    0.028297    -0.11987     -1.0997     0.79057      1.1066        0.25 
1.2566       5.969           0     0.90451    0.095492           0    0.014877    -0.14092    -0.57816     0.90954     0.59527     0.29389 
1.2566      6.2832           0     0.95106  7.5687e-17           0  1.1791e-17    -0.14817    -0.14817     0.95106     0.20954     0.30902 
1.5708           0           0           1           0           0           0    -0.15579     0.15579           1     0.22032  6.1232e-17 
1.5708     0.31416           0     0.95106 -1.8922e-17           0 -2.9479e-18    -0.14817     0.60792     0.95106     0.62571  5.8235e-17 
1.5708     0.62832           0     0.80902 -3.5991e-17           0 -5.6072e-18    -0.12604      1.1563     0.80902      1.1632  4.9538e-17 
1.5708     0.94248           0     0.58779 -4.9538e-17           0 -7.7176e-18   -0.091572      1.5915     0.58779      1.5942  3.5991e-17 
1.5708      1.2566           0     0.30902 -5.8235e-17           0 -9.0726e-18   -0.048142       1.871     0.30902      1.8716  1.8922e-17 
1.5708      1.5708           0  6.1232e-17 -6.1232e-17           0 -9.5395e-18 -9.5395e-18      1.9673  8.6596e-17      1.9673  3.7494e-33 
1.5708       1.885           0    -0.30902 -5.8235e-17           0 -9.0726e-18    0.048142       1.871     0.30902      1.8716 -1.8922e-17 
1.5708      2.1991           0    -0.58779 -4.9538e-17           0 -7.7176e-18    0.091572      1.5915     0.58779      1.5942 -3.5991e-17 
1.5708      2.5133           0    -0.80902 -3.5991e-17           0 -5.6072e-18     0.12604      1.1563     0.80902      1.1632 -4.9538e-17 
1.5708      2.8274           0    -0.95106 -1.8922e-17           0 -2.9479e-18     0.14817     0.60792     0.95106     0.62571 -5.8235e-17 
1.5708      3.1416           0          -1 -7.4988e-33           0 -1.1683e-33     0.15579  4.7386e-16           1     0.15579 -6.1232e-17 
1.5708      3.4558           0    -0.95106  1.8922e-17           0  2.9479e-18     0.14817    -0.60792     0.95106     0.62571 -5.8235e-17 
1.5708      3.7699           0    -0.80902  3.5991e-17           0  5.6072e-18     0.12604     -1.1563     0.80902      1.1632 -4.9538e-17 
1.5708      4.0841           0    -0.58779  4.9538e-17           0  7.7176e-18    0.091572     -1.5915     0.58779      1.5942 -3.5991e-17 
1.5708      4.3982           0    -0.30902  5.8235e-17           0  9.0726e-18    0.048142      -1.871     0.30902      1.8716 -1.8922e-17 
1.5708      4.7124           0  -1.837e-16  6.1232e-17           0  9.5395e-18  2.8619e-17     -1.9673  1.9363e-16      1.9673 -1.1248e-32 
1.5708      5.0265           0     0.30902  5.8235e-17           0  9.0726e-18   -0.048142      -1.871     0.30902      1.8716  1.8922e-17 
1.5708      5.3407           0     0.58779  4.9538e-17           0  7.7176e-18   -0.091572     -1.5915     0.58779      1.5942  3.5991e-17 
1.5708      5.6549           0     0.80902  3.5991e-17           0  5.6072e-18    -0.12604     -1.1563     0.80902      1.1632  4.9538e-17 
1.5708       5.969           0     0.95106  1.8922e-17           0  2.9479e-18    -0.14817    -0.60792     0.95106     0.62571  5.8235e-17 
1.5708      6.2832           0           1  1.4998e-32           0  2.3365e-33    -0.15579    -0.15579           1     0.22032  6.1232e-17 
1.885           0           0     0.95106           0           0           0    -0.14817     0.14817     0.95106     0.20954    -0.30902 
1.885     0.31416           0     0.90451    0.095492           0    0.014877    -0.14092     0.57816     0.90954     0.59527    -0.29389 
1.885     0.62832           0     0.76942     0.18164           0    0.028297    -0.11987      1.0997     0.79057      1.1066       -0.25 
1.885     0.94248           0     0.55902        0.25           0    0.038948    -0.08709      1.5137     0.61237      1.5167    -0.18164 
1.885      1.2566           0     0.29389     0.29389           0    0.045786   -0.045786      1.7794     0.41563      1.7806   -0.095492 
1.885      1.5708           0  5.8235e-17     0.30902           0    0.048142 -9.0726e-18       1.871     0.30902      1.8716 -1.8922e-17 
1.885       1.885           0    -0.29389     0.29389           0    0.045786    0.045786      1.7794     0.41563      1.7806    0.095492 
1.885      2.1991           0    -0.55902        0.25           0    0.038948     0.08709      1.5137     0.61237      1.5167     0.18164 
1.885      2.5133           0    -0.76942     0.18164           0    0.028297     0.11987      1.0997     0.79057      1.1066        0.25 
1.885      2.8274           0    -0.90451    0.095492           0    0.014877     0.14092     0.57816     0.90954     0.59527     0.29389 
1.885      3.1416           0    -0.95106  3.7844e-17           0  5.8957e-18     0.14817  4.6796e-16     0.95106     0.14817     0.30902 
1.885      3.4558           0    -0.90451   -0.095492           0   -0.014877     0.14092    -0.57816     0.90954     0.59527     0.29389 
1.885      3.7699           0    -0.76942    -0.18164           0   -0.028297     0.11987     -1.0997     0.79057      1.1066        0.25 
1.885      4.0841           0    -0.55902       -0.25           0   -0.038948     0.08709     -1.5137     0.61237      1.5167     0.18164 
1.885      4.3982           0    -0.29389    -0.29389           0   -0.045786    0.045786     -1.7794     0.41563      1.7806    0.095492 
1.885      4.7124           0 -1.7471e-16    -0.30902           0   -0.048142  2.7218e-17      -1.871     0.30902      1.8716  5.6766e-17 
1.885      5.0265           0     0.29389    -0.29389           0   -0.045786   -0.045786     -1.7794     0.41563      1.7806   -0.095492 
1.885      5.3407           0     0.55902       -0.25           0   -0.038948    -0.08709     -1.5137     0.61237      1.5167    -0.18164 
1.885      5.6549           0     0.76942    -0.18164           0   -0.028297    -0.11987     -1.0997     0.79057      1.1066       -0.25 
1.885       5.969           0     0.90451   -0.095492           0   -0.014877    -0.14092    -0.57816     0.90954     0.59527    -0.29389 
1.885      6.2832           0     0.95106 -7.5687e-17           0 -1.1791e-17    -0.14817    -0.14817     0.95106     0.20954    -0.30902 
2.1991           0           0     0.80902           0           0           0    -0.12604     0.12604     0.80902     0.17825    -0.58779 
2.1991     0.31416           0     0.76942     0.18164           0    0.028297    -0.11987     0.49182     0.79057       0.507    -0.55902 
2.1991     0.62832           0     0.65451     0.34549           0    0.053825    -0.10197     0.93549      0.7401     0.94257    -0.47553 
2.1991     0.94248           0     0.47553     0.47553           0    0.074083   -0.074083      1.2876      0.6725      1.2918    -0.34549 
2.1991      1.2566           0        0.25     0.55902           0     0.08709   -0.038948      1.5137     0.61237      1.5167    -0.18164 
2.1991      1.5708           0  4.9538e-17     0.58779           0    0.091572 -7.7176e-18      1.5915     0.58779      1.5942 -3.5991e-17 
2.1991       1.885           0       -0.25     0.55902           0     0.08709    0.038948      1.5137     0.61237      1.5167     0.18164 
2.1991      2.1991           0    -0.47553     0.47553           0    0.074083    0.074083      1.2876      0.6725      1.2918     0.34549 
2.1991      2.5133           0    -0.65451     0.34549           0    0.053825     0.10197     0.93549      0.7401     0.94257     0.47553 
2.1991      2.8274           0    -0.76942     0.18164           0    0.028297     0.11987     0.49182     0.79057       0.507     0.55902 
2.1991      3.1416           0    -0.80902  7.1983e-17           0  1.1214e-17     0.12604  2.7415e-16     0.80902     0.12604     0.58779 
2.1991      3.4558           0    -0.76942    -0.18164           0   -0.028297     0.11987    -0.49182     0.79057       0.507     0.55902 
2.1991      3.7699           0    -0.65451    -0.34549           0   -0.053825     0.10197    -0.93549      0.7401     0.94257     0.47553 
2.1991      4.0841           0    -0.47553    -0.47553           0   -0.074083    0.074083     -1.2876      0.6725      1.2918     0.34549 
2.1991      4.3982           0       -0.25    -0.55902           0    -0.08709    0.038948     -1.5137     0.61237      1.5167     0.18164 
2.1991      4.7124           0 -1.4861e-16    -0.58779           0   -0.091572  2.3153e-17     -1.5915     0.58779      1.5942  1.0797e-16 
2.1991      5.0265           0        0.25    -0.55902           0    -0.08709   -0.038948     -1.5137     0.61237      1.5167    -0.18164 
2.1991      5.3407           0     0.47553    -0.47553           0   -0.074083   -0.074083     -1.2876      0.6725      1.2918    -0.34549 
2.1991      5.6549           0     0.65451    -0.34549           0   -0.053825    -0.10197    -0.93549      0.7401     0.94257    -0.47553 
2.1991       5.969           0     0.76942    -0.18164           0   -0.028297    -0.11987    -0.49182     0.79057       0.507    -0.55902 
2.1991      6.2832           0     0.80902 -1.4397e-16           0 -2.2429e-17    -0.12604    -0.12604     0.80902     0.17825    -0.58779 
2.5133           0           0     0.58779           0           0           0   -0.091572    0.091572     0.58779      0.1295    -0.80902 
2.5133     0.31416           0     0.55902        0.25           0    0.038948    -0.08709     0.35733     0.61237     0.36984    -0.76942 
2.5133     0.62832           0     0.47553     0.47553           0    0.074083   -0.074083     0.67967      0.6725      0.6877    -0.65451 
2.5133     0.94248           0     0.34549     0.65451           0     0.10197   -0.053825     0.93549      0.7401     0.94257    -0.47553 
2.5133      1.2566           0     0.18164     0.76942           0     0.11987   -0.028297      1.0997     0.79057      1.1066       -0.25 
2.5133      1.5708           0  3.5991e-17     0.80902           0     0.12604 -5.6072e-18      1.1563     0.80902      1.1632 -4.9538e-17 
2.5133       1.885           0    -0.18164     0.76942           0     0.11987    0.028297      1.0997     0.79057      1.1066        0.25 
2.5133      2.1991           0    -0.34549     0.65451           0     0.10197    0.053825     0.93549      0.7401     0.94257     0.47553 
2.5133      2.5133           0    -0.47553     0.47553           0    0.074083    0.074083     0.67967      0.6725      0.6877     0.65451 
2.5133      2.8274           0    -0.55902        0.25           0    0.038948     0.08709     0.35733     0.61237     0.36984     0.76942 
2.5133      3.1416           0    -0.58779  9.9076e-17           0  1.5435e-17    0.091572   2.475e-16     0.58779    0.091572     0.80902 
2.5133      3.4558           0    -0.55902       -0.25           0   -0.038948     0.08709    -0.35733     0.61237     0.36984     0.76942 
2.5133      3.7699           0    -0.47553    -0.47553           0   -0.074083    0.074083    -0.67967      0.6725      0.6877     0.65451 
2.5133      4.0841           0    -0.34549    -0.65451           0    -0.10197    0.053825    -0.93549      0.7401     0.94257     0.47553 
2.5133      4.3982           0    -0.18164    -0.76942           0    -0.11987    0.028297     -1.0997     0.79057      1.1066        0.25 
2.5133      4.7124           0 -1.0797e-16    -0.80902           0    -0.12604  1.6822e-17     -1.1563     0.80902      1.1632  1.4861e-16 
2.5133      5.0265           0     0.18164    -0.76942           0    -0.11987   -0.028297     -1.0997     0.79057      1.1066       -0.25 
2.5133      5.3407           0     0.34549    -0.65451           0    -0.10197   -0.053825    -0.93549      0.7401     0.94257    -0.47553 
2.5133      5.6549           0     0.47553    -0.47553           0   -0.074083   -0.074083    -0.67967      0.6725      0.6877    -0.65451 
2.5133       5.969           0     0.55902       -0.25           0   -0.038948    -0.08709    -0.35733     0.61237     0.36984    -0.76942 
2.5133      6.2832           0     0.58779 -1.9815e-16           0  -3.087e-17   -0.091572   -0.091572     0.58779      0.1295    -0.80902 
2.8274           0           0     0.30902           0           0           0   -0.048142    0.048142     0.30902    0.068084    -0.95106 
2.8274     0.31416           0     0.29389     0.29389           0    0.045786   -0.045786     0.18786     0.41563      0.1987    -0.90451 
2.8274     0.62832           0        0.25     0.55902           0     0.08709   -0.038948     0.35733     0.61237     0.36984    -0.76942 
2.8274     0.94248           0     0.18164     0.76942           0     0.11987   -0.028297     0.49182     0.79057       0.507    -0.55902 
2.8274      1.2566           0    0.095492     0.90451           0     0.14092   -0.014877     0.57816     0.90954     0.59527    -0.29389 
2.8274      1.5708           0  1.8922e-17     0.95106           0     0.14817 -2.9479e-18     0.60792     0.95106     0.62571 -5.8235e-17 
2.8274       1.885           0   -0.095492     0.90451           0     0.14092    0.014877     0.57816     0.90954     0.59527     0.29389 
2.8274      2.1991           0    -0.18164     0.76942           0     0.11987    0.028297     0.49182     0.79057       0.507     0.55902 
2.8274      2.5133           0       -0.25     0.55902           0     0.08709    0.038948     0.35733     0.61237     0.36984     0.76942 
2.8274      2.8274           0    -0.29389     0.29389           0    0.045786    0.045786     0.18786     0.41563      0.1987     0.90451 
2.8274      3.1416           0    -0.30902  1.1647e-16           0  1.8145e-17    0.048142  1.2557e-16     0.30902    0.048142     0.95106 
2.8274      3.4558           0    -0.29389    -0.29389           0   -0.045786    0.045786    -0.18786     0.41563      0.1987     0.90451 
2.8274      3.7699           0       -0.25    -0.55902           0    -0.08709    0.038948    -0.35733     0.61237     0.36984     0.76942 
2.8274      4.0841           0    -0.18164    -0.76942           0    -0.11987    0.028297    -0.49182     0.79057       0.507     0.55902 
2.8274      4.3982           0   -0.095492    -0.90451           0    -0.14092    0.014877    -0.57816     0.90954     0.59527     0.29389 
2.8274      4.7124           0 -5.6766e-17    -0.95106           0    -0.14817  8.8436e-18    -0.60792     0.95106     0.62571  1.7471e-16 
2.8274      5.0265           0    0.095492    -0.90451           0    -0.14092   -0.014877    -0.57816     0.90954     0.59527    -0.29389 
2.8274      5.3407           0     0.18164    -0.76942           0    -0.11987   -0.028297    -0.49182     0.79057       0.507    -0.55902 
2.8274      5.6549           0        0.25    -0.55902           0    -0.08709   -0.038948    -0.35733     0.61237     0.36984    -0.76942 
2.8274       5.969           0     0.29389    -0.29389           0   -0.045786   -0.045786    -0.18786     0.41563      0.1987    -0.90451 
2.8274      6.2832           0     0.30902 -2.3294e-16           0  -3.629e-17   -0.048142   -0.048142     0.30902    0.068084    -0.95106 
3.1416           0           0  1.2246e-16           0           0           0 -1.9079e-17  1.9079e-17  1.2246e-16  2.6982e-17          -1 
3.1416     0.31416           0  1.1647e-16     0.30902           0    0.048142 -1.8145e-17  1.2557e-16     0.30902    0.048142    -0.95106 